version 2
run General-0-20180513-22:53:25-20561
attr configname General
attr datetime 20180513-22:53:25
attr experiment General
attr inifile omnetpp.ini
attr iterationvars ""
attr iterationvarsf ""
attr measurement ""
attr network d2dcommunication.final_net
attr processid 20561
attr repetition 0
attr replication #0
attr resultdir results
attr runnumber 0
attr seedset 0

vector 0 final_net.n[5] D2ICommunication:vector ETV
vector 1 final_net.n[8] D2ICommunication:vector ETV
vector 2 final_net.n[6] D2ICommunication:vector ETV
vector 3 final_net.n[1] D2ICommunication:vector ETV
vector 4 final_net.n[9] D2ICommunication:vector ETV
vector 5 final_net.n[7] D2ICommunication:vector ETV
vector 6 final_net.n[2] D2DCommunication:vector ETV
0	13	0.395215464158	4096
0	15	0.395328188982	4096
0	17	0.395440913806	4096
0	19	0.39555363863	4096
0	21	0.395666363454	4096
0	23	0.395779088278	4096
0	25	0.395891813102	4096
0	27	0.396004537926	4096
0	29	0.39611726275	4096
0	31	0.396229987574	4096
0	33	0.396342712398	4096
0	35	0.396455437222	4096
0	37	0.396568162046	4096
0	39	0.39668088687	4096
0	41	0.396793611694	4096
0	43	0.396906336518	4096
0	45	0.397019061342	4096
0	47	0.397131786166	4096
0	49	0.39724451099	4096
0	51	0.397357235814	4096
0	53	0.397469960638	4096
0	55	0.397582685462	4096
0	57	0.397695410286	4096
0	59	0.39780813511	4096
0	61	0.397920859934	4096
0	63	0.398033584758	4096
0	65	0.398146309582	4096
0	67	0.398259034406	4096
0	69	0.39837175923	4096
0	71	0.398484484054	4096
0	73	0.398597208878	4096
0	75	0.398709933702	4096
0	77	0.398822658526	4096
0	79	0.39893538335	4096
0	81	0.399048108174	4096
0	83	0.399160832998	4096
0	85	0.399273557822	4096
0	87	0.399386282646	4096
0	89	0.39949900747	4096
0	91	0.399611732294	4096
0	93	0.399724457118	4096
0	95	0.399837181942	4096
0	97	0.399949906766	4096
0	99	0.40006263159	4096
0	101	0.400175356414	4096
0	103	0.400288081238	4096
0	105	0.400400806062	4096
0	107	0.400513530886	4096
0	109	0.40062625571	4096
0	111	0.400738980534	4096
0	113	0.400851705358	4096
0	115	0.400964430182	4096
0	117	0.401077155006	4096
0	119	0.40118987983	4096
0	121	0.401302604654	4096
0	123	0.401415329478	4096
0	125	0.401528054302	4096
0	127	0.401640779126	4096
0	129	0.40175350395	4096
0	131	0.401866228774	4096
0	133	0.401978953598	4096
0	135	0.402091678422	4096
0	137	0.402204403246	4096
0	139	0.40231712807	4096
0	141	0.402429852894	4096
0	143	0.402542577718	4096
0	145	0.402655302542	4096
0	147	0.402768027366	4096
0	149	0.40288075219	4096
0	151	0.402993477014	4096
0	153	0.403106201838	4096
0	155	0.403218926662	4096
0	157	0.403331651486	4096
0	159	0.40344437631	4096
0	161	0.403557101134	4096
0	163	0.403669825958	4096
0	165	0.403782550782	4096
0	167	0.403895275606	4096
0	169	0.40400800043	4096
0	171	0.404120725254	4096
0	173	0.404233450078	4096
0	175	0.404346174902	4096
0	177	0.404458899726	4096
0	179	0.40457162455	4096
0	181	0.404684349374	4096
0	183	0.404797074198	4096
0	185	0.404909799022	4096
0	187	0.405022523846	4096
0	189	0.40513524867	4096
0	191	0.405247973494	4096
0	193	0.405360698318	4096
0	195	0.405473423142	4096
0	197	0.405586147966	4096
0	199	0.40569887279	4096
0	201	0.405811597614	4096
0	203	0.405924322438	4096
0	205	0.406037047262	4096
0	207	0.406149772086	4096
0	209	0.40626249691	4096
0	211	0.406375221734	4096
0	213	0.406487946558	4096
0	215	0.406600671382	4096
0	217	0.406713396206	4096
0	219	0.40682612103	4096
0	221	0.406938845854	4096
0	223	0.407051570678	4096
0	225	0.407164295502	4096
0	227	0.407277020326	4096
0	229	0.40738974515	4096
0	231	0.407502469974	4096
0	233	0.407615194798	4096
0	235	0.407727919622	4096
0	237	0.407840644446	4096
0	239	0.40795336927	4096
0	241	0.408066094094	4096
0	243	0.408178818918	4096
0	245	0.408291543742	4096
0	247	0.408404268566	4096
0	249	0.40851699339	4096
0	251	0.408629718214	4096
0	253	0.408742443038	4096
0	255	0.408855167862	4096
0	257	0.408967892686	4096
0	259	0.40908061751	4096
0	261	0.409193342334	4096
0	263	0.409306067158	4096
0	265	0.409418791982	4096
0	267	0.409531516806	4096
0	269	0.40964424163	4096
0	271	0.409756966454	4096
0	273	0.409869691278	4096
0	275	0.409982416102	4096
0	277	0.410095140926	4096
0	279	0.41020786575	4096
0	281	0.410320590574	4096
0	283	0.410433315398	4096
0	285	0.410546040222	4096
0	287	0.410658765046	4096
0	289	0.41077148987	4096
0	291	0.410884214694	4096
0	293	0.410996939518	4096
0	295	0.411109664342	4096
0	297	0.411222389166	4096
0	299	0.41133511399	4096
0	301	0.411447838814	4096
0	303	0.411560563638	4096
0	305	0.411673288462	4096
0	307	0.411786013286	4096
0	309	0.41189873811	4096
0	311	0.412011462934	4096
0	313	0.412124187758	4096
0	315	0.412236912582	4096
0	317	0.412349637406	4096
0	319	0.41246236223	4096
0	321	0.412575087054	4096
0	323	0.412687811878	4096
0	325	0.412800536702	4096
0	327	0.412913261526	4096
0	329	0.41302598635	4096
0	331	0.413138711174	4096
0	333	0.413251435998	4096
0	335	0.413364160822	4096
0	337	0.413476885646	4096
0	339	0.41358961047	4096
0	341	0.413702335294	4096
0	343	0.413815060118	4096
0	345	0.413927784942	4096
0	347	0.414040509766	4096
0	349	0.41415323459	4096
0	351	0.414265959414	4096
0	353	0.414378684238	4096
0	355	0.414491409062	4096
0	357	0.414604133886	4096
0	359	0.41471685871	4096
0	361	0.414829583534	4096
0	363	0.414942308358	4096
0	365	0.415055033182	4096
0	367	0.415167758006	4096
0	369	0.41528048283	4096
0	371	0.415393207654	4096
0	373	0.415505932478	4096
0	375	0.415618657302	4096
0	377	0.415731382126	4096
0	379	0.41584410695	4096
0	381	0.415956831774	4096
0	383	0.416069556598	4096
0	385	0.416182281422	4096
0	387	0.416295006246	4096
0	389	0.41640773107	4096
0	391	0.416520455894	4096
0	393	0.416633180718	4096
0	395	0.416745905542	4096
0	397	0.416858630366	4096
0	399	0.41697135519	4096
0	401	0.417084080014	4096
0	403	0.417196804838	4096
0	405	0.417309529662	4096
0	407	0.417422254486	4096
0	409	0.41753497931	4096
0	411	0.417647704134	4096
0	413	0.417760428958	4096
0	415	0.417873153782	4096
0	417	0.417985878606	4096
0	419	0.41809860343	4096
0	421	0.418211328254	4096
0	423	0.418324053078	4096
0	425	0.418436777902	4096
0	427	0.418549502726	4096
0	429	0.41866222755	4096
0	431	0.418774952374	4096
0	433	0.418887677198	4096
0	435	0.419000402022	4096
0	437	0.419113126846	4096
0	439	0.41922585167	4096
0	441	0.419338576494	4096
0	443	0.419451301318	4096
0	445	0.419564026142	4096
0	447	0.419676750966	4096
0	449	0.41978947579	4096
0	451	0.419902200614	4096
0	453	0.420014925438	4096
0	455	0.420127650262	4096
0	457	0.420240375086	4096
0	459	0.42035309991	4096
0	461	0.420465824734	4096
0	463	0.420578549558	4096
0	465	0.420691274382	4096
0	467	0.420803999206	4096
0	469	0.42091672403	4096
0	471	0.421029448854	4096
0	473	0.421142173678	4096
0	475	0.421254898502	4096
0	477	0.421367623326	4096
0	479	0.42148034815	4096
0	481	0.421593072974	4096
0	483	0.421705797798	4096
0	485	0.421818522622	4096
0	487	0.421931247446	4096
0	489	0.42204397227	4096
0	491	0.422156697094	4096
0	493	0.422269421918	4096
0	495	0.422382146742	4096
0	497	0.422494871566	4096
0	499	0.42260759639	4096
0	501	0.422720321214	4096
0	503	0.422833046038	4096
0	505	0.422945770862	4096
0	507	0.423058495686	4096
0	509	0.42317122051	4096
0	511	0.423283945334	4096
0	513	0.423396670158	4096
0	515	0.423509394982	4096
0	517	0.423622119806	4096
0	519	0.42373484463	4096
0	521	0.423847569454	4096
0	523	0.423960294278	4096
0	525	0.424073019102	4096
0	527	0.424185743926	4096
0	529	0.42429846875	4096
0	531	0.424411193574	4096
0	533	0.424523918398	4096
0	535	0.424636643222	4096
0	537	0.424749368046	4096
0	539	0.42486209287	4096
0	541	0.424974817694	4096
0	543	0.425087542518	4096
0	545	0.425200267342	4096
0	547	0.425312992166	4096
0	549	0.42542571699	4096
0	551	0.425538441814	4096
0	553	0.425651166638	4096
0	555	0.425763891462	4096
0	557	0.425876616286	4096
0	559	0.42598934111	4096
0	561	0.426102065934	4096
0	563	0.426214790758	4096
0	565	0.426327515582	4096
0	567	0.426440240406	4096
0	569	0.42655296523	4096
0	571	0.426665690054	4096
0	573	0.426778414878	4096
0	575	0.426891139702	4096
0	577	0.427003864526	4096
0	579	0.42711658935	4096
0	581	0.427229314174	4096
0	583	0.427342038998	4096
0	585	0.427454763822	4096
0	587	0.427567488646	4096
0	589	0.42768021347	4096
0	591	0.427792938294	4096
0	593	0.427905663118	4096
0	595	0.428018387942	4096
0	597	0.428131112766	4096
0	599	0.42824383759	4096
0	601	0.428356562414	4096
0	603	0.428469287238	4096
0	605	0.428582012062	4096
0	607	0.428694736886	4096
0	609	0.42880746171	4096
0	611	0.428920186534	4096
0	613	0.429032911358	4096
0	615	0.429145636182	4096
0	617	0.429258361006	4096
0	619	0.42937108583	4096
0	621	0.429483810654	4096
0	623	0.429596535478	4096
0	625	0.429709260302	4096
0	627	0.429821985126	4096
0	629	0.42993470995	4096
0	631	0.430047434774	4096
0	633	0.430160159598	4096
0	635	0.430272884422	4096
0	637	0.430385609246	4096
0	639	0.43049833407	4096
0	641	0.430611058894	4096
0	643	0.430723783718	4096
0	645	0.430836508542	4096
0	647	0.430949233366	4096
0	649	0.43106195819	4096
0	651	0.431174683014	4096
0	653	0.431287407838	4096
0	655	0.431400132662	4096
0	657	0.431512857486	4096
0	659	0.43162558231	4096
0	661	0.431738307134	4096
0	663	0.431851031958	4096
0	665	0.431963756782	4096
0	667	0.432076481606	4096
0	669	0.43218920643	4096
0	671	0.432301931254	4096
0	673	0.432414656078	4096
0	675	0.432527380902	4096
0	677	0.432640105726	4096
0	679	0.43275283055	4096
0	681	0.432865555374	4096
0	683	0.432978280198	4096
0	685	0.433091005022	4096
0	687	0.433203729846	4096
0	689	0.43331645467	4096
0	691	0.433429179494	4096
0	693	0.433541904318	4096
0	695	0.433654629142	4096
0	697	0.433767353966	4096
0	699	0.43388007879	4096
0	701	0.433992803614	4096
0	703	0.434105528438	4096
0	705	0.434218253262	4096
0	707	0.434330978086	4096
0	709	0.43444370291	4096
0	711	0.434556427734	4096
0	713	0.434669152558	4096
0	715	0.434781877382	4096
0	717	0.434894602206	4096
0	719	0.43500732703	4096
0	721	0.435120051854	4096
0	723	0.435232776678	4096
0	725	0.435345501502	4096
0	727	0.435458226326	4096
0	729	0.43557095115	4096
0	731	0.435683675974	4096
0	733	0.435796400798	4096
0	735	0.435909125622	4096
0	737	0.436021850446	4096
0	739	0.43613457527	4096
0	741	0.436247300094	4096
0	743	0.436360024918	4096
0	745	0.436472749742	4096
0	747	0.436585474566	4096
0	749	0.43669819939	4096
0	751	0.436810924214	4096
0	753	0.436923649038	4096
0	755	0.437036373862	4096
0	757	0.437149098686	4096
0	759	0.43726182351	4096
0	761	0.437374548334	4096
0	763	0.437487273158	4096
0	765	0.437599997982	4096
0	767	0.437712722806	4096
0	769	0.43782544763	4096
0	771	0.437938172454	4096
0	773	0.438050897278	4096
0	775	0.438163622102	4096
0	777	0.438276346926	4096
0	779	0.43838907175	4096
0	781	0.438501796574	4096
0	783	0.438614521398	4096
0	785	0.438727246222	4096
0	787	0.438839971046	4096
0	789	0.43895269587	4096
0	791	0.439065420694	4096
0	793	0.439178145518	4096
0	795	0.439290870342	4096
0	797	0.439403595166	4096
0	799	0.43951631999	4096
0	801	0.439629044814	4096
0	803	0.439741769638	4096
0	805	0.439854494462	4096
0	807	0.439967219286	4096
0	809	0.44007994411	4096
0	811	0.440192668934	4096
0	813	0.440305393758	4096
0	815	0.440418118582	4096
0	817	0.440530843406	4096
0	819	0.44064356823	4096
0	821	0.440756293054	4096
0	823	0.440869017878	4096
0	825	0.440981742702	4096
0	827	0.441094467526	4096
0	829	0.44120719235	4096
0	831	0.441319917174	4096
0	833	0.441432641998	4096
0	835	0.441545366822	4096
0	837	0.441658091646	4096
0	839	0.44177081647	4096
0	841	0.441883541294	4096
0	843	0.441996266118	4096
0	845	0.442108990942	4096
0	847	0.442221715766	4096
0	849	0.44233444059	4096
0	851	0.442447165414	4096
0	853	0.442559890238	4096
0	855	0.442672615062	4096
0	857	0.442785339886	4096
0	859	0.44289806471	4096
0	861	0.443010789534	4096
0	863	0.443123514358	4096
0	865	0.443236239182	4096
0	867	0.443348964006	4096
0	869	0.44346168883	4096
0	871	0.443574413654	4096
0	873	0.443687138478	4096
0	875	0.443799863302	4096
0	877	0.443912588126	4096
0	879	0.44402531295	4096
0	881	0.444138037774	4096
0	883	0.444250762598	4096
0	885	0.444363487422	4096
0	887	0.444476212246	4096
0	889	0.44458893707	4096
0	891	0.444701661894	4096
0	893	0.444814386718	4096
0	895	0.444927111542	4096
0	897	0.445039836366	4096
0	899	0.44515256119	4096
0	901	0.445265286014	4096
0	903	0.445378010838	4096
0	905	0.445490735662	4096
0	907	0.445603460486	4096
0	909	0.44571618531	4096
0	911	0.445828910134	4096
0	913	0.445941634958	4096
0	915	0.446054359782	4096
0	917	0.446167084606	4096
0	919	0.44627980943	4096
0	921	0.446392534254	4096
0	923	0.446505259078	4096
0	925	0.446617983902	4096
0	927	0.446730708726	4096
0	929	0.44684343355	4096
0	931	0.446956158374	4096
0	933	0.447068883198	4096
0	935	0.447181608022	4096
0	937	0.447294332846	4096
0	939	0.44740705767	4096
0	941	0.447519782494	4096
0	943	0.447632507318	4096
0	945	0.447745232142	4096
0	947	0.447857956966	4096
0	949	0.44797068179	4096
0	951	0.448083406614	4096
0	953	0.448196131438	4096
0	955	0.448308856262	4096
0	957	0.448421581086	4096
0	959	0.44853430591	4096
0	961	0.448647030734	4096
0	963	0.448759755558	4096
0	965	0.448872480382	4096
0	967	0.448985205206	4096
0	969	0.44909793003	4096
0	971	0.449210654854	4096
0	973	0.449323379678	4096
0	975	0.449436104502	4096
0	977	0.449548829326	4096
0	979	0.44966155415	4096
0	981	0.449774278974	4096
0	983	0.449887003798	4096
0	985	0.449999728622	4096
0	987	0.450112453446	4096
0	989	0.45022517827	4096
0	991	0.450337903094	4096
0	993	0.450450627918	4096
0	995	0.450563352742	4096
0	997	0.450676077566	4096
0	999	0.45078880239	4096
0	1001	0.450901527214	4096
0	1003	0.451014252038	4096
0	1005	0.451126976862	4096
0	1007	0.451239701686	4096
0	1009	0.45135242651	4096
0	1011	0.451465151334	4096
0	1013	0.451577876158	4096
0	1015	0.451690600982	4096
0	1017	0.451803325806	4096
0	1019	0.45191605063	4096
0	1021	0.452028775454	4096
0	1023	0.452141500278	4096
0	1025	0.452254225102	4096
0	1027	0.452366949926	4096
0	1029	0.45247967475	4096
0	1031	0.452592399574	4096
0	1033	0.452705124398	4096
0	1035	0.452817849222	4096
0	1037	0.452930574046	4096
0	1039	0.45304329887	4096
0	1041	0.453156023694	4096
0	1043	0.453268748518	4096
0	1045	0.453381473342	4096
0	1047	0.453494198166	4096
0	1049	0.45360692299	4096
0	1051	0.453719647814	4096
0	1053	0.453832372638	4096
0	1055	0.453945097462	4096
0	1057	0.454057822286	4096
0	1059	0.45417054711	4096
0	1061	0.454283271934	4096
0	1063	0.454395996758	4096
0	1065	0.454508721582	4096
0	1067	0.454621446406	4096
0	1069	0.45473417123	4096
0	1071	0.454846896054	4096
0	1073	0.454959620878	4096
0	1075	0.455072345702	4096
0	1077	0.455185070526	4096
0	1079	0.45529779535	4096
0	1081	0.455410520174	4096
0	1083	0.455523244998	4096
0	1085	0.455635969822	4096
0	1087	0.455748694646	4096
0	1089	0.45586141947	4096
0	1091	0.455974144294	4096
0	1093	0.456086869118	4096
0	1095	0.456199593942	4096
0	1097	0.456312318766	4096
0	1099	0.45642504359	4096
0	1101	0.456537768414	4096
0	1103	0.456650493238	4096
0	1105	0.456763218062	4096
0	1107	0.456875942886	4096
0	1109	0.45698866771	4096
0	1111	0.457101392534	4096
0	1113	0.457214117358	4096
0	1115	0.457326842182	4096
0	1117	0.457439567006	4096
0	1119	0.45755229183	4096
0	1121	0.457665016654	4096
0	1123	0.457777741478	4096
0	1125	0.457890466302	4096
0	1127	0.458003191126	4096
0	1129	0.45811591595	4096
0	1131	0.458228640774	4096
0	1133	0.458341365598	4096
0	1135	0.458454090422	4096
0	1137	0.458566815246	4096
0	1139	0.45867954007	4096
0	1141	0.458792264894	4096
0	1143	0.458904989718	4096
0	1145	0.459017714542	4096
0	1147	0.459130439366	4096
0	1149	0.45924316419	4096
0	1151	0.459355889014	4096
0	1153	0.459468613838	4096
0	1155	0.459581338662	4096
0	1157	0.459694063486	4096
0	1159	0.45980678831	4096
0	1161	0.459919513134	4096
0	1163	0.460032237958	4096
0	1165	0.460144962782	4096
0	1167	0.460257687606	4096
0	1169	0.46037041243	4096
0	1171	0.460483137254	4096
0	1173	0.460595862078	4096
0	1175	0.460708586902	4096
0	1177	0.460821311726	4096
0	1179	0.46093403655	4096
0	1181	0.461046761374	4096
0	1183	0.461159486198	4096
0	1185	0.461272211022	4096
0	1187	0.461384935846	4096
0	1189	0.46149766067	4096
0	1191	0.461610385494	4096
0	1193	0.461723110318	4096
0	1195	0.461835835142	4096
0	1197	0.461948559966	4096
0	1199	0.46206128479	4096
0	1201	0.462174009614	4096
0	1203	0.462286734438	4096
0	1205	0.462399459262	4096
0	1207	0.462512184086	4096
0	1209	0.46262490891	4096
0	1211	0.462737633734	4096
0	1213	0.462850358558	4096
0	1215	0.462963083382	4096
0	1217	0.463075808206	4096
0	1219	0.46318853303	4096
0	1221	0.463301257854	4096
0	1223	0.463413982678	4096
0	1225	0.463526707502	4096
0	1227	0.463639432326	4096
0	1229	0.46375215715	4096
0	1231	0.463864881974	4096
0	1233	0.463977606798	4096
0	1235	0.464090331622	4096
0	1237	0.464203056446	4096
0	1239	0.46431578127	4096
0	1241	0.464428506094	4096
0	1243	0.464541230918	4096
0	1245	0.464653955742	4096
0	1247	0.464766680566	4096
0	1249	0.46487940539	4096
0	1251	0.464992130214	4096
0	1253	0.465104855038	4096
0	1255	0.465217579862	4096
0	1257	0.465330304686	4096
0	1259	0.46544302951	4096
0	1261	0.465555754334	4096
0	1263	0.465668479158	4096
0	1265	0.465781203982	4096
0	1267	0.465893928806	4096
0	1269	0.46600665363	4096
0	1271	0.466119378454	4096
0	1273	0.466232103278	4096
0	1275	0.466344828102	4096
0	1277	0.466457552926	4096
0	1279	0.46657027775	4096
0	1281	0.466683002574	4096
0	1283	0.466795727398	4096
0	1285	0.466908452222	4096
0	1287	0.467021177046	4096
0	1289	0.46713390187	4096
0	1291	0.467246626694	4096
0	1293	0.467359351518	4096
0	1295	0.467472076342	4096
0	1297	0.467584801166	4096
0	1299	0.46769752599	4096
0	1301	0.467810250814	4096
0	1303	0.467922975638	4096
0	1305	0.468035700462	4096
0	1307	0.468148425286	4096
0	1309	0.46826115011	4096
0	1311	0.468373874934	4096
0	1313	0.468486599758	4096
0	1315	0.468599324582	4096
0	1317	0.468712049406	4096
0	1319	0.46882477423	4096
0	1321	0.468937499054	4096
0	1323	0.469050223878	4096
0	1325	0.469162948702	4096
0	1327	0.469275673526	4096
0	1329	0.46938839835	4096
0	1331	0.469501123174	4096
0	1333	0.469613847998	4096
0	1335	0.469726572822	4096
0	1337	0.469839297646	4096
0	1339	0.46995202247	4096
0	1341	0.470064747294	4096
0	1343	0.470177472118	4096
0	1345	0.470290196942	4096
0	1347	0.470402921766	4096
0	1349	0.47051564659	4096
0	1351	0.470628371414	4096
0	1353	0.470741096238	4096
0	1355	0.470853821062	4096
0	1357	0.470966545886	4096
0	1359	0.47107927071	4096
0	1361	0.471191995534	4096
0	1363	0.471304720358	4096
0	1365	0.471417445182	4096
0	1367	0.471530170006	4096
0	1369	0.47164289483	4096
0	1371	0.471755619654	4096
0	1373	0.471868344478	4096
0	1375	0.471981069302	4096
0	1377	0.472093794126	4096
0	1379	0.47220651895	4096
0	1381	0.472319243774	4096
0	1383	0.472431968598	4096
0	1385	0.472544693422	4096
0	1387	0.472657418246	4096
0	1389	0.47277014307	4096
0	1391	0.472882867894	4096
0	1393	0.472995592718	4096
0	1395	0.473108317542	4096
0	1397	0.473221042366	4096
0	1399	0.47333376719	4096
0	1401	0.473446492014	4096
0	1403	0.473559216838	4096
0	1405	0.473671941662	4096
0	1407	0.473784666486	4096
0	1409	0.47389739131	4096
0	1411	0.474010116134	4096
0	1413	0.474122840958	4096
0	1415	0.474235565782	4096
0	1417	0.474348290606	4096
0	1419	0.47446101543	4096
0	1421	0.474573740254	4096
0	1423	0.474686465078	4096
0	1425	0.474799189902	4096
0	1427	0.474911914726	4096
0	1429	0.47502463955	4096
0	1431	0.475137364374	4096
0	1433	0.475250089198	4096
0	1435	0.475362814022	4096
0	1437	0.475475538846	4096
0	1439	0.47558826367	4096
0	1441	0.475700988494	4096
0	1443	0.475813713318	4096
0	1445	0.475926438142	4096
0	1447	0.476039162966	4096
0	1449	0.47615188779	4096
0	1451	0.476264612614	4096
0	1453	0.476377337438	4096
0	1455	0.476490062262	4096
0	1457	0.476602787086	4096
0	1459	0.47671551191	4096
0	1461	0.476828236734	4096
0	1463	0.476940961558	4096
0	1465	0.477053686382	4096
0	1467	0.477166411206	4096
0	1469	0.47727913603	4096
0	1471	0.477391860854	4096
0	1473	0.477504585678	4096
0	1475	0.477617310502	4096
0	1477	0.477730035326	4096
0	1479	0.47784276015	4096
0	1481	0.477955484974	4096
0	1483	0.478068209798	4096
0	1485	0.478180934622	4096
0	1487	0.478293659446	4096
0	1489	0.47840638427	4096
0	1491	0.478519109094	4096
0	1493	0.478631833918	4096
0	1495	0.478744558742	4096
0	1497	0.478857283566	4096
0	1499	0.47897000839	4096
0	1501	0.479082733214	4096
0	1503	0.479195458038	4096
0	1505	0.479308182862	4096
0	1507	0.479420907686	4096
0	1509	0.47953363251	4096
0	1511	0.479646357334	4096
0	1513	0.479759082158	4096
0	1515	0.479871806982	4096
0	1517	0.479984531806	4096
0	1519	0.48009725663	4096
0	1521	0.480209981454	4096
0	1523	0.480322706278	4096
0	1525	0.480435431102	4096
0	1527	0.480548155926	4096
0	1529	0.48066088075	4096
0	1531	0.480773605574	4096
0	1533	0.480886330398	4096
0	1535	0.480999055222	4096
0	1537	0.481111780046	4096
0	1539	0.48122450487	4096
0	1541	0.481337229694	4096
0	1543	0.481449954518	4096
0	1545	0.481562679342	4096
0	1547	0.481675404166	4096
0	7565	1.024086368604	4096
0	7569	1.024199093428	4096
0	7572	1.024311818252	4096
0	7576	1.024424543076	4096
0	7579	1.0245372679	4096
0	7583	1.024649992724	4096
0	7586	1.024762717548	4096
0	7589	1.024875442372	4096
0	7593	1.024988167196	4096
0	7596	1.02510089202	4096
0	7600	1.025213616844	4096
0	7603	1.025326341668	4096
0	7606	1.025439066492	4096
0	7610	1.025551791316	4096
0	7613	1.02566451614	4096
0	7617	1.025777240964	4096
0	7620	1.025889965788	4096
0	7623	1.026002690612	4096
0	7627	1.026115415436	4096
0	7630	1.02622814026	4096
0	7634	1.026340865084	4096
0	7637	1.026453589908	4096
0	7640	1.026566314732	4096
0	7644	1.026679039556	4096
0	7647	1.02679176438	4096
0	7651	1.026904489204	4096
0	7654	1.027017214028	4096
0	7657	1.027129938852	4096
0	7661	1.027242663676	4096
0	7664	1.0273553885	4096
0	7668	1.027468113324	4096
0	7671	1.027580838148	4096
0	7675	1.027693562972	4096
0	7678	1.027806287796	4096
0	7681	1.02791901262	4096
0	7685	1.028031737444	4096
0	7688	1.028144462268	4096
0	7692	1.028257187092	4096
0	7695	1.028369911916	4096
0	7698	1.02848263674	4096
0	7702	1.028595361564	4096
0	7705	1.028708086388	4096
0	7709	1.028820811212	4096
0	7712	1.028933536036	4096
0	7715	1.02904626086	4096
0	7719	1.029158985684	4096
0	7722	1.029271710508	4096
0	7726	1.029384435332	4096
0	7729	1.029497160156	4096
0	7732	1.02960988498	4096
0	7736	1.029722609804	4096
0	7739	1.029835334628	4096
0	7743	1.029948059452	4096
0	7746	1.030060784276	4096
0	7749	1.0301735091	4096
0	7753	1.030286233924	4096
0	7756	1.030398958748	4096
0	7760	1.030511683572	4096
0	7763	1.030624408396	4096
0	7767	1.03073713322	4096
0	7770	1.030849858044	4096
0	7773	1.030962582868	4096
0	7777	1.031075307692	4096
0	7780	1.031188032516	4096
0	7783	1.03130075734	4096
0	7787	1.031413482164	4096
0	7790	1.031526206988	4096
0	7794	1.031638931812	4096
0	7797	1.031751656636	4096
0	7801	1.03186438146	4096
0	7804	1.031977106284	4096
0	7807	1.032089831108	4096
0	7811	1.032202555932	4096
0	7814	1.032315280756	4096
0	7818	1.03242800558	4096
0	7821	1.032540730404	4096
0	7824	1.032653455228	4096
0	7828	1.032766180052	4096
0	7831	1.032878904876	4096
0	7835	1.0329916297	4096
0	7838	1.033104354524	4096
0	7841	1.033217079348	4096
0	7845	1.033329804172	4096
0	7848	1.033442528996	4096
0	7852	1.03355525382	4096
0	7855	1.033667978644	4096
0	7858	1.033780703468	4096
0	7862	1.033893428292	4096
0	7865	1.034006153116	4096
0	7869	1.03411887794	4096
0	7872	1.034231602764	4096
0	7875	1.034344327588	4096
0	7879	1.034457052412	4096
0	7882	1.034569777236	4096
0	7886	1.03468250206	4096
0	7889	1.034795226884	4096
0	7893	1.034907951708	4096
0	7896	1.035020676532	4096
0	7899	1.035133401356	4096
0	7903	1.03524612618	4096
0	7906	1.035358851004	4096
0	7909	1.035471575828	4096
0	7913	1.035584300652	4096
0	7916	1.035697025476	4096
0	7920	1.0358097503	4096
0	7923	1.035922475124	4096
0	7927	1.036035199948	4096
0	7930	1.036147924772	4096
0	7933	1.036260649596	4096
0	7937	1.03637337442	4096
0	7940	1.036486099244	4096
0	7944	1.036598824068	4096
0	7947	1.036711548892	4096
0	7950	1.036824273716	4096
0	7954	1.03693699854	4096
0	7957	1.037049723364	4096
0	7961	1.037162448188	4096
0	7964	1.037275173012	4096
0	7967	1.037387897836	4096
0	7971	1.03750062266	4096
0	7974	1.037613347484	4096
0	7978	1.037726072308	4096
0	7981	1.037838797132	4096
0	7985	1.037951521956	4096
0	7988	1.03806424678	4096
0	7991	1.038176971604	4096
0	7995	1.038289696428	4096
0	7998	1.038402421252	4096
0	8001	1.038515146076	4096
0	8005	1.0386278709	4096
0	8008	1.038740595724	4096
0	8012	1.038853320548	4096
0	8015	1.038966045372	4096
0	8019	1.039078770196	4096
0	8022	1.03919149502	4096
0	8025	1.039304219844	4096
0	8029	1.039416944668	4096
0	8032	1.039529669492	4096
0	8036	1.039642394316	4096
0	8039	1.03975511914	4096
0	8042	1.039867843964	4096
0	8046	1.039980568788	4096
0	8049	1.040093293612	4096
0	8053	1.040206018436	4096
0	8056	1.04031874326	4096
0	8059	1.040431468084	4096
0	8063	1.040544192908	4096
0	8066	1.040656917732	4096
0	8070	1.040769642556	4096
0	8073	1.04088236738	4096
0	8076	1.040995092204	4096
0	8080	1.041107817028	4096
0	8083	1.041220541852	4096
0	8087	1.041333266676	4096
0	8090	1.0414459915	4096
0	8093	1.041558716324	4096
0	8097	1.041671441148	4096
0	8100	1.041784165972	4096
0	8104	1.041896890796	4096
0	8107	1.04200961562	4096
0	8111	1.042122340444	4096
0	8114	1.042235065268	4096
0	8117	1.042347790092	4096
0	8121	1.042460514916	4096
0	8124	1.04257323974	4096
0	8127	1.042685964564	4096
0	8131	1.042798689388	4096
0	8134	1.042911414212	4096
0	8138	1.043024139036	4096
0	8141	1.04313686386	4096
0	8145	1.043249588684	4096
0	8148	1.043362313508	4096
0	8151	1.043475038332	4096
0	8155	1.043587763156	4096
0	8158	1.04370048798	4096
0	8162	1.043813212804	4096
0	8165	1.043925937628	4096
0	8168	1.044038662452	4096
0	8172	1.044151387276	4096
0	8175	1.0442641121	4096
0	8179	1.044376836924	4096
0	8182	1.044489561748	4096
0	8185	1.044602286572	4096
0	8189	1.044715011396	4096
0	8192	1.04482773622	4096
0	8196	1.044940461044	4096
0	8199	1.045053185868	4096
0	8202	1.045165910692	4096
0	8206	1.045278635516	4096
0	8209	1.04539136034	4096
0	8213	1.045504085164	4096
0	8216	1.045616809988	4096
0	8219	1.045729534812	4096
0	8223	1.045842259636	4096
0	8226	1.04595498446	4096
0	8230	1.046067709284	4096
0	8233	1.046180434108	4096
0	8237	1.046293158932	4096
0	8240	1.046405883756	4096
0	8243	1.04651860858	4096
0	8247	1.046631333404	4096
0	8250	1.046744058228	4096
0	8254	1.046856783052	4096
0	8257	1.046969507876	4096
0	8260	1.0470822327	4096
0	8264	1.047194957524	4096
0	8267	1.047307682348	4096
0	8271	1.047420407172	4096
0	8274	1.047533131996	4096
0	8277	1.04764585682	4096
0	8281	1.047758581644	4096
0	8284	1.047871306468	4096
0	8288	1.047984031292	4096
0	8291	1.048096756116	4096
0	8294	1.04820948094	4096
0	8298	1.048322205764	4096
0	8301	1.048434930588	4096
0	8305	1.048547655412	4096
0	8308	1.048660380236	4096
0	8311	1.04877310506	4096
0	8315	1.048885829884	4096
0	8318	1.048998554708	4096
0	8322	1.049111279532	4096
0	8325	1.049224004356	4096
0	8329	1.04933672918	4096
0	8332	1.049449454004	4096
0	8335	1.049562178828	4096
0	8339	1.049674903652	4096
0	8342	1.049787628476	4096
0	8345	1.0499003533	4096
0	8349	1.050013078124	4096
0	8352	1.050125802948	4096
0	8356	1.050238527772	4096
0	8359	1.050351252596	4096
0	8363	1.05046397742	4096
0	8366	1.050576702244	4096
0	8369	1.050689427068	4096
0	8373	1.050802151892	4096
0	8376	1.050914876716	4096
0	8380	1.05102760154	4096
0	8383	1.051140326364	4096
0	8386	1.051253051188	4096
0	8390	1.051365776012	4096
0	8393	1.051478500836	4096
0	8397	1.05159122566	4096
0	8400	1.051703950484	4096
0	8403	1.051816675308	4096
0	8407	1.051929400132	4096
0	8410	1.052042124956	4096
0	8414	1.05215484978	4096
0	8417	1.052267574604	4096
0	8420	1.052380299428	4096
0	8424	1.052493024252	4096
0	8427	1.052605749076	4096
0	8431	1.0527184739	4096
0	8434	1.052831198724	4096
0	8437	1.052943923548	4096
0	8441	1.053056648372	4096
0	8444	1.053169373196	4096
0	8448	1.05328209802	4096
0	8451	1.053394822844	4096
0	8455	1.053507547668	4096
0	8458	1.053620272492	4096
0	8461	1.053732997316	4096
0	8465	1.05384572214	4096
0	8468	1.053958446964	4096
0	8471	1.054071171788	4096
0	8475	1.054183896612	4096
0	8478	1.054296621436	4096
0	8482	1.05440934626	4096
0	8485	1.054522071084	4096
0	8489	1.054634795908	4096
0	8492	1.054747520732	4096
0	8495	1.054860245556	4096
0	8499	1.05497297038	4096
0	8502	1.055085695204	4096
0	8506	1.055198420028	4096
0	8509	1.055311144852	4096
0	8512	1.055423869676	4096
0	8516	1.0555365945	4096
0	8519	1.055649319324	4096
0	8523	1.055762044148	4096
0	8526	1.055874768972	4096
0	8529	1.055987493796	4096
0	8533	1.05610021862	4096
0	8536	1.056212943444	4096
0	8540	1.056325668268	4096
0	8543	1.056438393092	4096
0	8546	1.056551117916	4096
0	8550	1.05666384274	4096
0	8553	1.056776567564	4096
0	8557	1.056889292388	4096
0	8560	1.057002017212	4096
0	8563	1.057114742036	4096
0	8567	1.05722746686	4096
0	8570	1.057340191684	4096
0	8574	1.057452916508	4096
0	8577	1.057565641332	4096
0	8581	1.057678366156	4096
0	8584	1.05779109098	4096
0	8587	1.057903815804	4096
0	8591	1.058016540628	4096
0	8594	1.058129265452	4096
0	8598	1.058241990276	4096
0	8601	1.0583547151	4096
0	8604	1.058467439924	4096
0	8608	1.058580164748	4096
0	8611	1.058692889572	4096
0	8615	1.058805614396	4096
0	8618	1.05891833922	4096
0	8621	1.059031064044	4096
0	8625	1.059143788868	4096
0	8628	1.059256513692	4096
0	8632	1.059369238516	4096
0	8635	1.05948196334	4096
0	8638	1.059594688164	4096
0	8642	1.059707412988	4096
0	8645	1.059820137812	4096
0	8649	1.059932862636	4096
0	8652	1.06004558746	4096
0	8655	1.060158312284	4096
0	8659	1.060271037108	4096
0	8662	1.060383761932	4096
0	8666	1.060496486756	4096
0	8669	1.06060921158	4096
0	8673	1.060721936404	4096
0	8676	1.060834661228	4096
0	8679	1.060947386052	4096
0	8683	1.061060110876	4096
0	8686	1.0611728357	4096
0	8689	1.061285560524	4096
0	8693	1.061398285348	4096
0	8696	1.061511010172	4096
0	8700	1.061623734996	4096
0	8703	1.06173645982	4096
0	8707	1.061849184644	4096
0	8710	1.061961909468	4096
0	8713	1.062074634292	4096
0	8717	1.062187359116	4096
0	8720	1.06230008394	4096
0	8724	1.062412808764	4096
0	8727	1.062525533588	4096
0	8730	1.062638258412	4096
0	8734	1.062750983236	4096